LAMMPS data file via write_data, version 4 Jan 2019, timestep = 10050

25 atoms
2 atom types

0.0000000000000000e+00 5.9761430466719681e+00 xlo xhi
0.0000000000000000e+00 5.9761430466719681e+00 ylo yhi
-5.0000000000000000e-01 5.0000000000000000e-01 zlo zhi

Masses

1 1
2 1

Atoms # full

1 1 1 0.0000000000000000e+00 1.4105438012105023e+00 1.0563968322612802e+00 0.0000000000000000e+00 0 0 0
7 2 2 0.0000000000000000e+00 2.6909779297971537e-01 1.6645053619685142e+00 0.0000000000000000e+00 0 -1 0
25 2 2 0.0000000000000000e+00 4.8867668117463825e-01 3.4590287694296051e-01 0.0000000000000000e+00 2 1 0
9 2 2 0.0000000000000000e+00 4.3556353076703802e+00 4.9583820355225100e-01 0.0000000000000000e+00 1 0 0
20 2 2 0.0000000000000000e+00 3.2160864669176630e+00 2.4342946654057612e-01 0.0000000000000000e+00 -1 -2 0
21 2 2 0.0000000000000000e+00 3.5864727884298313e+00 1.3839105751640539e+00 0.0000000000000000e+00 1 3 0
2 1 1 0.0000000000000000e+00 2.5210423055220401e+00 1.0104372131672290e+00 0.0000000000000000e+00 0 0 0
5 2 2 0.0000000000000000e+00 5.1475181542635777e+00 1.3288199594633909e+00 0.0000000000000000e+00 -1 0 0
13 2 2 0.0000000000000000e+00 4.5269692309911633e+00 2.1265875238237610e+00 0.0000000000000000e+00 0 -1 0
8 2 2 0.0000000000000000e+00 4.2824681556549193e-01 3.8264115545899648e+00 0.0000000000000000e+00 0 0 0
17 2 2 0.0000000000000000e+00 1.6543630421305655e+00 3.2211805334848704e+00 0.0000000000000000e+00 1 0 0
22 2 2 0.0000000000000000e+00 8.4202319784373403e-01 2.5306195400291989e+00 0.0000000000000000e+00 1 1 0
14 2 2 0.0000000000000000e+00 3.4747097181365945e+00 2.6222830494967506e+00 0.0000000000000000e+00 1 -1 0
12 2 2 0.0000000000000000e+00 2.4232194803533162e+00 2.5098958684640302e+00 0.0000000000000000e+00 0 0 0
10 2 2 0.0000000000000000e+00 2.5011468440575793e+00 3.6821782932068574e+00 0.0000000000000000e+00 -1 1 0
16 2 2 0.0000000000000000e+00 3.9854504967498241e+00 3.6284066095175276e+00 0.0000000000000000e+00 0 0 0
23 2 2 0.0000000000000000e+00 5.2900445349976151e+00 2.8692978413842418e+00 0.0000000000000000e+00 -2 2 0
6 2 2 0.0000000000000000e+00 5.9126699012735173e+00 5.1149075654457494e+00 0.0000000000000000e+00 -1 0 0
4 2 2 0.0000000000000000e+00 1.0021674393119457e+00 4.9264132161197800e+00 0.0000000000000000e+00 -1 -2 0
11 2 2 0.0000000000000000e+00 1.9615741195272383e+00 4.5294106520679405e+00 0.0000000000000000e+00 2 1 0
19 2 2 0.0000000000000000e+00 3.2340185950864244e+00 4.4470035783063988e+00 0.0000000000000000e+00 -2 1 0
18 2 2 0.0000000000000000e+00 1.9751088700729447e+00 7.8106547807060167e-02 0.0000000000000000e+00 -2 1 0
15 2 2 0.0000000000000000e+00 3.9251404991734091e+00 5.3548011788724770e+00 0.0000000000000000e+00 -1 0 0
24 2 2 0.0000000000000000e+00 5.3000701728835082e+00 5.8860871931736529e+00 0.0000000000000000e+00 1 0 0
3 2 2 0.0000000000000000e+00 4.9964328836882856e+00 3.8887396251291739e+00 0.0000000000000000e+00 -1 -1 0

Velocities

1 3.1209966704703961e-02 7.2225720879631854e-03 0.0000000000000000e+00
7 -1.8458208283208294e-02 2.4912927868814397e-02 0.0000000000000000e+00
25 4.1511584787463154e-03 -6.8676524108141285e-04 0.0000000000000000e+00
9 -2.0864737154346041e-02 -4.1288036402395752e-03 0.0000000000000000e+00
20 3.1805030679567074e-02 -2.2442737551367758e-02 0.0000000000000000e+00
21 2.0799703487185586e-02 1.9264986337503787e-02 0.0000000000000000e+00
2 2.8640566648109760e-03 -9.8554473720251761e-03 0.0000000000000000e+00
5 -6.4317159067186543e-03 -1.3560452512245932e-02 0.0000000000000000e+00
13 -2.0804178187476675e-03 3.4282389328214272e-02 0.0000000000000000e+00
8 7.4834006382941531e-03 1.0385974391127460e-03 0.0000000000000000e+00
17 -1.2547996762670894e-02 6.6235350464838166e-03 0.0000000000000000e+00
22 -1.7472669179009241e-02 5.5436389800934040e-03 0.0000000000000000e+00
14 3.8947913242655240e-03 -1.2871159032007553e-02 0.0000000000000000e+00
12 -3.3277270981154246e-02 -1.2941589011225501e-02 0.0000000000000000e+00
10 2.1115565629750417e-03 1.1650598005233650e-02 0.0000000000000000e+00
16 -8.6114923178111404e-03 2.1006999418311335e-02 0.0000000000000000e+00
23 -6.6958549604149891e-03 -3.0637329382377419e-02 0.0000000000000000e+00
6 1.5269760891614036e-02 -1.3073452573057961e-03 0.0000000000000000e+00
4 -2.8340979135757009e-02 -8.8836232440072643e-03 0.0000000000000000e+00
11 3.4238974637781833e-02 -8.3940783710828115e-04 0.0000000000000000e+00
19 9.1530529745016773e-03 -1.7164878142460933e-02 0.0000000000000000e+00
18 -1.2728310479280577e-02 7.5564794327390369e-03 0.0000000000000000e+00
15 3.3500554622263324e-04 -1.9689350559167578e-02 0.0000000000000000e+00
24 -2.1894065750870489e-04 7.1615137651079531e-03 0.0000000000000000e+00
3 4.4121350459574004e-03 8.7446510730413585e-03 0.0000000000000000e+00
